39
 energy: -67.889447402242 gnorm: 0.000648869049 xtb: 6.2.3 (unknown)
C        -0.00612452890383    1.40937625458684    0.00395798537757
C        -1.25028756641792    3.49963412351706    0.00655650225206
C        -0.00975910903123    2.82021442504472    0.00673431031447
C         1.22753045723348    3.50526637737618    0.00776771839150
H        -1.24514619162924    4.58048309730132    0.01092403547658
H         1.21737532645636    4.58612328355777    0.00905757351542
C         1.22264071145943    0.70432391984851    0.00450398278398
C         2.40953620685336    2.82685608838401    0.00573214801949
C         2.44243165290237    1.41294460008655    0.00467289448923
C         3.65446326406953    0.68407558206093    0.00351539717074
H         3.34788904229187    3.36344878368738    0.00486459038681
H         4.58549605670121    1.23325029421042    0.00209967152363
C         1.22556066487634   -0.71236246982668    0.00386762192993
C         3.65766677776542   -0.67869438044774    0.00424459165975
C         2.44948259371963   -1.41404927075363    0.00506349279931
C         2.42532619010188   -2.82811891123258    0.00621568247478
H         4.59138798270166   -1.22329287299698    0.00359910113661
H         3.36688967130969   -3.35904333881111    0.00848113203290
C         0.00026686781010   -1.42436475368405    0.00051061179534
C         1.24734262483187   -3.51318077359958    0.00366723022955
C         0.00614901656083   -2.83496936327098   -0.00110214512347
C        -1.22972618523465   -3.52158487271948   -0.01119030961938
H         1.24299716993670   -4.59402110466061    0.00404284836036
H        -1.21870825254993   -4.60225135556264   -0.01596067203717
C        -1.22955518735315   -0.71948936292152   -0.00396488194454
C        -2.41349935162752   -2.84644602750145   -0.01797716366591
C        -2.44721592645007   -1.43230765020892   -0.01298540156655
C        -3.66177863007152   -0.69662724030581   -0.01862348524726
H        -3.34789447884767   -3.38838070872225   -0.03344525881259
C        -4.96687803953868   -1.42312377464028   -0.04454193024525
C        -1.23127098591529    0.69761519188104   -0.00126671430132
C        -3.66164076488192    0.67049894985640   -0.01580260947090
C        -2.45324400225286    1.40196825816946   -0.00594277193290
C        -2.42911787757481    2.81615500587902   -0.00031966621833
H        -4.59681782223603    1.21241448646202   -0.02308165534026
H        -3.37025616550821    3.34719640544763   -0.00251405686236
O        -5.57068929774239   -1.74025327444016   -1.03328735234941
O        -5.41962624335160   -1.67390141838503    1.19114690465724
H        -6.27669567046321   -2.12908220266580    1.15318004796032
