37
 energy: -61.609107530170 gnorm: 0.000859946388 xtb: 6.2.3 (unknown)
C         0.03111272143815    1.42839916908801   -0.21572698338556
C        -1.24452487171322    3.50550513539389    0.05060918541807
C         0.01045860943865    2.81806336393158   -0.09733685392450
C         1.23944545578040    3.50132416563402    0.02139421432459
H        -1.20123643526975    4.56080446828883    0.27911117295572
H         1.22641466709029    4.57953920530659    0.09434436493564
C         1.23722703887215    0.70975920443928   -0.10996339096797
C         2.42483355091121    2.82316770234659    0.03957162443283
C         2.45717030650269    1.41427031329907   -0.00417057513305
C         3.66633386993154    0.67732491482114    0.05318166872254
H         3.36006790000458    3.36061611953987    0.10851660425772
H         4.59735138334415    1.22282242465597    0.11654916189773
C         1.23538078947459   -0.71324475479268   -0.10396330689236
C         3.66262859945249   -0.68264893026734    0.03645344177296
C         2.44888701465331   -1.41386432925929   -0.02016834997760
C         2.42250692013968   -2.83060489015150    0.03638714565112
H         4.59151798165519   -1.23346880169960    0.08480330477994
H         3.36397697794230   -3.35963641350501    0.08470953385762
C         0.00394895666871   -1.42635515268869   -0.11002379371828
C         1.24659220869434   -3.51380853255028    0.05309045778524
C         0.00379432594285   -2.83511648104743   -0.00423669172645
C        -1.23251669763899   -3.51155641562046    0.03955491835454
H         1.23969555763383   -4.59284388531205    0.11641323817813
H        -1.23035002069218   -4.59021713252503    0.10846367244131
C        -1.22146518921661   -0.74114908347335   -0.21581656598424
C        -2.41250845467740   -2.82405076508137    0.02141327174436
C        -2.43527677775179   -1.41807601868233   -0.09746129784140
C        -3.65811263171104   -0.67496251481573    0.05044260587256
H        -3.35279087182711   -3.35186101366115    0.09437755503713
H        -4.55044432925923   -1.24015315181652    0.27971036509881
C        -1.20720542653901    0.69697306318005   -0.47750019065814
C        -3.69970914087972    0.66813122205976    0.04345028754884
C        -2.53566491296173    1.46395561033320   -0.34381461121846
C        -2.42847639499774    2.86998922740937    0.04353450730824
H        -4.59640723558758    1.20574893338194    0.31338297802022
H        -3.34237923936387    3.37775223613052    0.31327829431238
O        -1.95817620548424    1.13057178771006   -1.58256096328014
