38
 energy: -65.614421232652 gnorm: 0.000357344713 xtb: 6.2.3 (unknown)
C        -0.01927178936286    1.43232099495582    0.37078152423360
C        -1.23809584018262    3.49528006387568    0.01265092527372
C        -0.00989569904844    2.80895924248730    0.14135758205571
C         1.22268569668892    3.49184173493706   -0.14952036503545
H        -1.21813224803076    4.56872066144411   -0.10745577047922
H         1.14827016719672    4.52878292438316   -0.44460994879281
C         1.25415590304885    0.75892989736852    0.64294857433644
C         2.40080871014012    2.85387324508755   -0.21848792539394
C         2.53462010647365    1.48660917486698    0.28763923810614
C         3.68090442078349    0.66746523188912   -0.14192431059420
H         3.28746339823812    3.33223928803145   -0.60428157684761
H         4.56098401529084    1.20059099075807   -0.46738797341447
C         1.27630080303043   -0.74391686849763    0.66625489946067
C         3.63674138480340   -0.67216244955682   -0.15364059791958
C         2.47158724651875   -1.43609474246818    0.19510074108591
C         2.41647514370378   -2.79890115415248    0.01855420913197
H         4.49919816522914   -1.23630798135068   -0.47903452876646
H         3.32863323986074   -3.32771294063712   -0.21932367398677
C        -0.04758322582569   -1.48694884566712    0.54452839254220
C         1.20894986535914   -3.51085741518316   -0.00729066181305
C        -0.01013300976556   -2.88185780994173    0.08929778426698
C        -1.25466172528372   -3.51494973109685   -0.17906027276915
H         1.23576559149749   -4.56878866664935   -0.22570783745075
H        -1.24359257952510   -4.57436067454706   -0.39072883513838
C        -1.26670140413054   -0.70992609273191    0.28268293568073
C        -2.41756820203526   -2.82202221463936   -0.16846123143451
C        -2.44423404263109   -1.39967372946510   -0.00157837062167
C        -3.64565197861401   -0.67063494295627   -0.15935592486167
H        -3.35693724969676   -3.32421462406364   -0.34774177966044
H        -4.56031160772544   -1.21578155324132   -0.34142439911773
C        -1.23331832777409    0.70303680978544    0.27545542447938
C        -3.64847705355847    0.68901371022478   -0.09464779112997
C        -2.44691488050159    1.41154826875352    0.07664232218481
C        -2.42115643682701    2.82014219617413    0.01054665112051
H        -4.56872460822343    1.24291440735324   -0.21264075732862
H        -3.35692743180156    3.35011239114960   -0.09377324023815
O         2.08908197254459    1.32793502481578    1.61778435666801
O         0.60616351013591   -1.27520382149551    1.77585221216789
