39
 energy: -62.626676419510 gnorm: 0.000688714098 xtb: 6.2.3 (unknown)
C         0.00401893681506    1.43005482233270   -0.16002131119117
C        -1.29549838421186    3.49944556853156   -0.10663684209563
C        -0.01067261952732    2.81599109168571   -0.08690107306420
C         1.20790307533134    3.50858635433238    0.01868798973831
H        -1.28485801343443    4.56934114933505   -0.26272741630855
H         1.19472492397872    4.58809760804196    0.06778413135724
C         1.20646132743461    0.71387286980740   -0.08782872887730
C         2.39545028466453    2.82752175627829    0.05936156359839
C         2.42732862947925    1.42117702663795    0.01875477762043
C         3.63798733788487    0.68348101526485    0.07940540673662
H         3.32971428843563    3.36607795358712    0.13012286915941
H         4.56866326902811    1.22963627227004    0.14172761871778
C         1.20649873199345   -0.71270948117537   -0.08340777315348
C         3.63273481681677   -0.67507648640642    0.06775753874356
C         2.41794252533693   -1.40810223369126    0.00707651977894
C         2.39747791841792   -2.82733263987598    0.05888606934303
H         4.56068610332867   -1.22702630480732    0.12037928263880
H         3.34174935463603   -3.35037164118243    0.11585227870208
C        -0.02621075888866   -1.43053690964723   -0.10379147458520
C         1.22640144682749   -3.51578636630343    0.05795363631768
C        -0.02116324210095   -2.84247060945631   -0.00952006978167
C        -1.25143040224225   -3.52400805165928    0.01329913296423
H         1.22372616288013   -4.59517823467522    0.11515890647035
H        -1.24599808801345   -4.60297293903269    0.07604448384323
C        -1.25007302839422   -0.75361802976376   -0.17915916586125
C        -2.43799342894991   -2.84053424860377   -0.03258049859562
C        -2.45407839675773   -1.43880890345342   -0.12384932524173
C        -3.69087186508213   -0.67380939328370   -0.13876612809726
H        -3.37678766041454   -3.37452002691483    0.00451679663082
H        -4.60925830692049   -1.21769139523474   -0.30997268542476
C        -1.29475849653014    0.72549106864419   -0.38526831271782
C        -3.70913631502549    0.63907892431036    0.08970631653547
C        -2.43305127014195    1.37197479582966    0.42039197022007
C        -2.44315492396092    2.84705656863570    0.08874497504210
H        -4.63058395763848    1.19707544273377    0.14629640884045
H        -3.39028164421859    3.36249603853873    0.13346988472693
O        -2.25883886928625    1.22361602429339    1.83156403358886
H        -1.42056940030099    1.63293279572481    2.07432625533756
H        -1.57050006124891    0.89454874835157   -1.44383804165655
