38
 energy: -63.792033193299 gnorm: 0.000569991163 xtb: 6.2.3 (unknown)
C        -0.00543259507599    1.42822176232838   -0.00716483164059
C        -1.26780059108612    3.51373809813346   -0.02529489763704
C        -0.02501760658116    2.83835948877096   -0.01242130492017
C         1.20473009896700    3.52973921152076   -0.00113283972140
H        -1.26517411931912    4.59447818872317   -0.02832802572075
H         1.18939429866467    4.61044362555989    0.00247680784257
C         1.23221526470943    0.73243122527915    0.00487027472699
C         2.39430076438146    2.86321560386993    0.00622000599988
C         2.45286991067677    1.45041035631938    0.00207291353920
C         3.67523697722991    0.70755507598747    0.00671926590733
H         3.30789760139312    3.43578764146580    0.02087292212826
C         4.99930679807425    1.33599553823270   -0.04062618854928
C         1.22736053557621   -0.68699566168085    0.02134221861701
C         3.64755052651466   -0.67022544412357    0.03699704552504
C         2.44775310442801   -1.39813757444538    0.04479053347364
C         2.42621793439175   -2.81397364591001    0.06739340322519
H         4.59173642016577   -1.19698346279597    0.04538656661772
H         3.36929490187302   -3.34037652418276    0.08915813845979
C         0.00440176262277   -1.40223879276698    0.01604983962961
C         1.24893018679769   -3.49691429595749    0.06028934387283
C         0.00969288845979   -2.81413254272042    0.03185827581950
C        -1.22513236356977   -3.50210712045205    0.01878632714960
H         1.24086751278198   -4.57747955019726    0.07585372615318
H        -1.21177159443072   -4.58276670149098    0.02808005194381
C        -1.22666204259618   -0.70223511709343   -0.00525918863943
C        -2.40909212937000   -2.82725632606123   -0.00546191817168
C        -2.44480021240314   -1.41394823880118   -0.01551421836222
C        -3.65880768909704   -0.68918211904831   -0.03417977785107
H        -3.34586656891075   -3.36630795667865   -0.01622615801420
H        -4.58830301449355   -1.24062025753313   -0.04268336011006
C        -1.23024110936648    0.71366862790086   -0.01387210875209
C        -3.66394956767223    0.67325609560840   -0.03984676526486
C        -2.45733514610522    1.41087218977961   -0.02948400508297
C        -2.44243744826652    2.82493971703255   -0.03437249805652
H        -4.59813378815032    1.21670486125136   -0.05250131824023
H        -3.38670903044561    3.35058038426740   -0.04508011757543
O         6.04431262806396    0.73503426142388    0.03930834153640
H         5.00709650116715    2.43274937848490   -0.16907647985728
