37
 energy: -61.614844105691 gnorm: 0.000220080115 xtb: 6.2.3 (unknown)
C        -0.00626809978498    1.43090187365596   -0.00000077363012
C        -1.21681028119173    3.52015051292363    0.00000109426665
C        -0.01027898958351    2.84385054333138    0.00000169416423
C         1.25498446027063    3.60610774638429    0.00000538885891
H        -1.19523296866793    4.60015613377233    0.00000263895904
O         1.26836142488067    4.83666825259025    0.00000883469004
C         1.21219112583205    0.71839840136162   -0.00000061734833
C         2.45804336968061    2.81308542015586    0.00000250965499
C         2.45280290589019    1.44141136461308   -0.00000025819877
C         3.66745352375922    0.68144815514707   -0.00000292427659
H         3.39431851554257    3.35298766695893    0.00000330008124
H         4.59995343405718    1.22713340389193   -0.00000430240927
C         1.20936950195104   -0.68401320134549   -0.00000092778768
C         3.65818018085620   -0.66941299984353   -0.00000382288076
C         2.43462254903574   -1.40515962859520   -0.00000169531221
C         2.40430035541719   -2.79682004492940   -0.00000034571011
H         4.58362831836704   -1.22807727485847   -0.00000606409959
H         3.33742889653444   -3.34236339504723   -0.00000096545513
C        -0.02422368036618   -1.39215174727477   -0.00000028643177
C         1.20558758718385   -3.48778669072400    0.00000234315569
C        -0.01223598642478   -2.81589496908878    0.00000221942425
C        -1.26047286558382   -3.51293766728270    0.00000429019671
H         1.20885827116753   -4.56856412162281    0.00000400359126
H        -1.23508475389052   -4.59342707109223    0.00000757507867
C        -1.23763952235774   -0.68895726977266   -0.00000236827070
C        -2.43450437590699   -2.85143607631329    0.00000178209625
C        -2.48704742158706   -1.41463953203321   -0.00000317643719
C        -3.66773031728313   -0.74518605583191   -0.00000532916902
H        -3.37385552225472   -3.38532238911344    0.00000409751406
H        -4.59955967829190   -1.29353431690025   -0.00000259973120
C        -1.24056112667713    0.72685454763027   -0.00000361165186
C        -3.76652328339003    0.73185349164079   -0.00000548934653
C        -2.45404549022990    1.45262368850743   -0.00000463149613
C        -2.42382716652455    2.83228127349175   -0.00000140151636
H        -4.35477684841535    1.04986077731470    0.87142481877903
H        -3.35312663732155    3.38474783572364   -0.00000262058111
H        -4.35477940469262    1.04986336257445   -0.87142237877059
